# Walkthrough - Advanced Caching & Sticky Context

I have successfully upgraded the `new_llm_v2` project with a high-performance **Advanced Caching Architecture**. This implementation solves the "Retrieval Flux" problem and maximizes cache hits for **Gemini 2.0 Flash** on OpenRouter.

## 🌟 Key Upgrades

### 1. The Hybrid Context Router ("Sticky Context")
The application now intelligently detects "follow-up" questions.
- **How it works:** If your question contains keywords like *"it"*, *"that"*, *"explain"*, or *"refactor"*, the assistant **bypasses retrieval** and reuses the exact same code chunks from the previous turn.
- **The Result:** This ensures a **100% Cache Hit** on your larger code context because the prompt prefix remains identically stable.

### 2. Deterministic Alphabetical Sorting
To prevent accidental cache misses, I added logic in [rag_chain.py](file:///c:/Users/CHip/OneDrive%20-%20Chipspirit%20Technologies%20Private%20Limited/Desktop/AM/24/SPI/anti_gravity/anthropic-leaked-source-code-main/new_llm_v3/new_llm_v2/rag_chain.py) to **alphabetize** retrieved chunks by their source filename before they are added to the prompt.
- **The Problem solved:** Even if the database returns the same 5 files in a different order, the prompt string will now always be the same.

### 3. 4-Level Strategic Breakpoints
We are now using the maximum of **4 cache markers** available in the Anthropic/OpenRouter standard:
1.  **BP 1:** Static System Instructions.
2.  **BP 2:** The Code Context (The "Heavy Lifter").
3.  **BP 3:** Start of Chat History.
4.  **BP 4:** Middle of Chat History (to keep ~50-75% of long conversations warm).

## 🛠️ Code Deep-Dive

### Deterministic Sorting (rag_chain.py)
```python
# Forces the prompt to stay identical across turns
top_docs.sort(key=lambda d: d.metadata.get("source", ""))
```

### Hybrid Router (app.py)
```python
# Detects pronouns and action words to trigger Sticky Context
reuse_context = any(kw in user_input.lower().split() for kw in CONTEXT_FOLLOWUP_KEYWORDS)
if reuse_context and context_override:
    st.caption("🔄 Reusing context for follow-up question (Cache Hit Guaranteed)")
```

## 📈 Performance Impact
- **Token Efficiency:** You now only pay for **new** tokens in your follow-up questions. Your 2,000+ token context and 1,000+ token instructions are virtually free after the first turn.
- **Gemini Threshold:** By caching the larger Context block, your total prompt prefix easily crosses the **1,028-token threshold** required for Gemini 2.0 Flash to activate its implicit cache on OpenRouter.

> [!TIP]
> You can see this in action by looking for the **"🔄 Reusing context..."** caption in the Streamlit interface when asking follow-up questions!
